============================== echo of input deck ==============================
echo

geometry units angstrom noautoz nocenter
symmetry c1
Li  0.0000  0.0000  0.0000
H   0.0000  0.0000  1.5949
end

charge 1

basis
  * library sto-3g
end

dft
  mult 2
  xc hfexch
  direct
  maxiter 1000
  convergence energy 1.0e-10
end

tddft
  nroots 100
  singlet
  notriplet
  cdspectrum
  velocity
  tda
  thresh 1d-08
end

task tddft energy
================================================================================

 Output coordinates in angstroms (scale by  1.889725989 to convert to a.u.)

  No.       Tag          Charge          X              Y              Z
 ---- ---------------- ---------- -------------- -------------- --------------
    1 Li                   3.0000     0.00000000     0.00000000     0.00000000
    2 H                    1.0000     0.00000000     0.00000000     1.59490000

         Total DFT energy =       -7.613669652698

                    DFT Final Alpha Molecular Orbital Analysis
                    ------------------------------------------

 Vector    1  Occ=1.000000D+00  E=-2.730371D+00

 Vector    2  Occ=1.000000D+00  E=-8.100086D-01

 Vector    3  Occ=0.000000D+00  E=-1.519440D-01

 Vector    4  Occ=0.000000D+00  E=-1.021601D-01

 Vector    5  Occ=0.000000D+00  E=-1.021601D-01

 Vector    6  Occ=0.000000D+00  E= 1.315531D-01

 Vector    1  Occ=1.000000D+00  E=-2.723658D+00

 Vector    2  Occ=0.000000D+00  E=-2.311500D-01

 Vector    3  Occ=0.000000D+00  E=-1.355716D-01

 Vector    4  Occ=0.000000D+00  E=-9.146378D-02

 Vector    5  Occ=0.000000D+00  E=-9.146378D-02

 Vector    6  Occ=0.000000D+00  E= 2.967868D-01

     Multipole analysis of the density
     ---------------------------------

     L   x y z        total         alpha         beta         nuclear
     -   - - -        -----         -----         ----         -------
     0   0 0 0      1.000000     -2.000000     -1.000000      4.000000

     1   1 0 0     -0.000000      0.000000     -0.000000      0.000000
     1   0 1 0      0.000000      0.000000     -0.000000      0.000000
     1   0 0 1      0.172805     -2.840751     -0.000368      3.013924

     2   2 0 0     -1.289236     -1.142838     -0.146398      0.000000
     2   1 1 0     -0.000000     -0.000000     -0.000000      0.000000
     2   1 0 1      0.000000      0.000000     -0.000000      0.000000
     2   0 2 0     -1.289236     -1.142838     -0.146398      0.000000
     2   0 1 1      0.000000      0.000000     -0.000000      0.000000

  Root   1         a              0.443209749 a.u.               12.0604 eV
     Dipole Oscillator Strength                         0.01436
  Root   2         a              0.456670626 a.u.               12.4266 eV
     Dipole Oscillator Strength                         0.09303
  Root   3         a              0.456670626 a.u.               12.4266 eV
     Dipole Oscillator Strength                         0.09303
  Root   4         a              0.623051692 a.u.               16.9541 eV
     Dipole Oscillator Strength                         0.12819
  Root   5         a              2.124743868 a.u.               57.8172 eV
     Dipole Oscillator Strength                         0.01605
  Root   6         a              2.193897421 a.u.               59.6990 eV
     Dipole Oscillator Strength                         0.00357
  Root   7         a              2.229592740 a.u.               60.6703 eV
     Dipole Oscillator Strength                         0.04619
  Root   8         a              2.233645880 a.u.               60.7806 eV
     Dipole Oscillator Strength                         0.00130
  Root   9         a              2.233645880 a.u.               60.7806 eV
     Dipole Oscillator Strength                         0.00130
  Root  10         a              2.253555096 a.u.               61.3224 eV
     Dipole Oscillator Strength                         0.12268
  Root  11         a              2.253555096 a.u.               61.3224 eV
     Dipole Oscillator Strength                         0.12268
  Root  12         a              2.490636008 a.u.               67.7737 eV
     Dipole Oscillator Strength                         0.03542
  Root  13         a              2.678043442 a.u.               72.8733 eV
     Dipole Oscillator Strength                         0.01733
 Total times  cpu:        0.0s     wall:        0.2s
