 Output coordinates in angstroms (scale by  1.889725989 to convert to a.u.)

  No.       Tag          Charge          X              Y              Z
 ---- ---------------- ---------- -------------- -------------- --------------
    1 C                    6.0000    -0.00082866    -0.00044931    -0.00032412
    2 H                    1.0000     0.00054194    -0.00055105     1.08812231
    3 B                    5.0000     0.76140420     0.00009124    -1.24023040
    4 H                    1.0000     1.55078501    -0.32506411    -2.06829352
    5 C                    6.0000    -0.56775152     0.96965162    -0.96827854
    6 H                    1.0000    -0.67876440     2.02622931    -0.67911656
    7 H                    1.0000    -1.33081617     0.67159311    -1.71521660

         Total DFT energy =     -101.118440432885

                       DFT Final Molecular Orbital Analysis
                       ------------------------------------

 Vector    1  Occ=2.000000D+00  E=-1.143044D+01

 Vector    2  Occ=2.000000D+00  E=-1.135806D+01

 Vector    3  Occ=2.000000D+00  E=-7.765504D+00

 Vector    4  Occ=2.000000D+00  E=-1.341215D+00

 Vector    5  Occ=2.000000D+00  E=-1.046702D+00

 Vector    6  Occ=2.000000D+00  E=-9.490153D-01

 Vector    7  Occ=2.000000D+00  E=-8.383174D-01

 Vector    8  Occ=2.000000D+00  E=-8.171014D-01

 Vector    9  Occ=2.000000D+00  E=-7.330578D-01

 Vector   10  Occ=2.000000D+00  E=-6.430810D-01

 Vector   11  Occ=0.000000D+00  E=-2.015533D-01

 Vector   12  Occ=0.000000D+00  E= 2.130483D-02

 Vector   13  Occ=0.000000D+00  E= 1.794732D-01

 Vector   14  Occ=0.000000D+00  E= 2.623603D-01

 Vector   15  Occ=0.000000D+00  E= 3.290303D-01

 Vector   16  Occ=0.000000D+00  E= 3.912468D-01

 Vector   17  Occ=0.000000D+00  E= 4.449495D-01

 Vector   18  Occ=0.000000D+00  E= 5.001433D-01

 Vector   19  Occ=0.000000D+00  E= 7.526215D-01

     Multipole analysis of the density
     ---------------------------------

     L   x y z        total         alpha         beta         nuclear
     -   - - -        -----         -----         ----         -------
     0   0 0 0      1.000000    -10.000000    -10.000000     21.000000

     1   1 0 0     -0.035048      0.041732      0.041732     -0.118512
     1   0 1 0      0.659787     -7.406529     -7.406529     15.472845
     1   0 0 1     -1.207072     13.935328     13.935328    -29.077728

     2   2 0 0     -9.862448    -21.839256    -21.839256     33.816064
     2   1 1 0     -0.624114     10.536804     10.536804    -21.697721
     2   1 0 1      0.374418      3.555477      3.555477     -6.736537
     2   0 2 0    -10.142932    -23.468976    -23.468976     36.795020
     2   0 1 1     -0.791795     12.978037     12.978037    -26.747869

 Total times  cpu:        2.9s     wall:        7.5s
