 Q-Chem 5.1, Q-Chem, Inc., Pleasanton, CA (2018)
 Q-Chem 5.1.0 for Intel X86 EM64T Linux

User input:
--------------------------------------------------------------
$rem
  method = hf
  basis = sto-3g
  scf_convergence = 9
  thresh = 14
  cis_singlets = true
  cis_triplets = false
  cis_n_roots = 90
  rpa = true
$end

$molecule
1 1
C     -0.0008286620   -0.0004493055   -0.0003241160
H      0.0005419438   -0.0005510523    1.0881223132
B      0.7614042004    0.0000912434   -1.2402303969
H      1.5507850082   -0.3250641117   -2.0682935236
C     -0.5677515230    0.9696516240   -0.9682785376
H     -0.6787643958    2.0262293122   -0.6791165638
H     -1.3308161697    0.6715931113   -1.7152165963
$end
--------------------------------------------------------------

             Standard Nuclear Orientation (Angstroms)
    I     Atom           X                Y                Z
 ----------------------------------------------------------------
    1      C      -0.1134812780     0.8150565691    -0.1076825735
    2      H       0.0682919324     1.8540027174     0.1611424980
    3      B      -0.9167005381    -0.3866084914     0.0632171541
    4      H      -1.8678811555    -1.0990034055     0.1110243267
    5      C       0.7502481779    -0.3838162281     0.0192368855
    6      H       1.5212620976    -0.4191987779     0.8044633032
    7      H       1.0412284165    -0.9902001228    -0.8620417700
 ----------------------------------------------------------------

   16    -101.1184404152      6.67e-10  Convergence criterion met
 Total energy in the final basis set =     -101.1184404152

               CIS Excitation Energies
 ---------------------------------------------------

 Excited state   1: excitation energy (eV) =    3.4070
 Total energy for state  1:                  -100.99323571 au
    Multiplicity: Singlet
    Trans. Mom.:  0.1285 X  -0.4244 Y   0.1115 Z
    Strength   :     0.0174512366
    D(  9) --> V(  1) amplitude = -0.2354
    D( 10) --> V(  1) amplitude =  0.9507

 Excited state   2: excitation energy (eV) =    4.3573
 Total energy for state  2:                  -100.95831439 au
    Multiplicity: Singlet
    Trans. Mom.:  0.1965 X  -0.1549 Y   0.0879 Z
    Strength   :     0.0075104536
    D(  9) --> V(  1) amplitude =  0.9230
    D( 10) --> V(  1) amplitude =  0.2296

 Excited state   3: excitation energy (eV) =    8.2774
 Total energy for state  3:                  -100.81425258 au
    Multiplicity: Singlet
    Trans. Mom.: -0.0710 X  -0.0643 Y  -0.1231 Z
    Strength   :     0.0049323661
    D(  6) --> V(  1) amplitude = -0.2796
    D(  7) --> V(  1) amplitude =  0.7427
    D( 10) --> V(  2) amplitude =  0.5108

 Excited state   4: excitation energy (eV) =    8.9796
 Total energy for state  4:                  -100.78844576 au
    Multiplicity: Singlet
    Trans. Mom.: -0.6131 X   0.2629 Y   0.2472 Z
    Strength   :     0.1113429281
    D(  8) --> V(  1) amplitude =  0.7931
    D(  9) --> V(  2) amplitude = -0.3902
    D( 10) --> V(  2) amplitude =  0.3577

 Excited state   5: excitation energy (eV) =    9.4247
 Total energy for state  5:                  -100.77208936 au
    Multiplicity: Singlet
    Trans. Mom.:  0.2016 X  -0.6699 Y   0.1415 Z
    Strength   :     0.1176363460
    D(  7) --> V(  1) amplitude = -0.4345
    D(  8) --> V(  1) amplitude = -0.4876
    D(  9) --> V(  2) amplitude = -0.3390
    D( 10) --> V(  2) amplitude =  0.5774

 Excited state   6: excitation energy (eV) =   10.7276
 Total energy for state  6:                  -100.72420721 au
    Multiplicity: Singlet
    Trans. Mom.: -0.1095 X  -0.4030 Y  -0.0981 Z
    Strength   :     0.0483730732
    D(  6) --> V(  1) amplitude =  0.6447
    D(  9) --> V(  2) amplitude =  0.5089
    D( 10) --> V(  2) amplitude =  0.4235

 Excited state   7: excitation energy (eV) =   11.6668
 Total energy for state  7:                  -100.68969435 au
    Multiplicity: Singlet
    Trans. Mom.: -0.2875 X   0.2068 Y   0.1698 Z
    Strength   :     0.0440875030
    D(  6) --> V(  1) amplitude = -0.6001
    D(  7) --> V(  1) amplitude = -0.3706
    D(  9) --> V(  2) amplitude =  0.6329

 Excited state   8: excitation energy (eV) =   14.3031
 Total energy for state  8:                  -100.59281149 au
    Multiplicity: Singlet
    Trans. Mom.:  0.7159 X  -0.0402 Y   0.0076 Z
    Strength   :     0.1802046339
    D(  5) --> V(  1) amplitude =  0.3906
    D(  7) --> V(  2) amplitude =  0.5579
    D(  8) --> V(  2) amplitude = -0.5059
    D( 10) --> V(  3) amplitude =  0.3855

 Excited state   9: excitation energy (eV) =   14.7065
 Total energy for state  9:                  -100.57798770 au
    Multiplicity: Singlet
    Trans. Mom.:  0.9638 X  -0.0817 Y   0.1879 Z
    Strength   :     0.3497940944
    D(  5) --> V(  1) amplitude = -0.3241
    D(  7) --> V(  2) amplitude = -0.4168
    D( 10) --> V(  3) amplitude =  0.7571

 Excited state  10: excitation energy (eV) =   15.6091
 Total energy for state 10:                  -100.54481549 au
    Multiplicity: Singlet
    Trans. Mom.:  0.3620 X   0.4009 Y  -0.9989 Z
    Strength   :     0.4931631159
    D(  5) --> V(  1) amplitude =  0.7087
    D(  7) --> V(  2) amplitude = -0.4000
    D(  8) --> V(  2) amplitude =  0.3370
    D(  9) --> V(  3) amplitude = -0.2315
    D( 10) --> V(  4) amplitude =  0.2443

 Excited state  11: excitation energy (eV) =   15.8186
 Total energy for state 11:                  -100.53711911 au
    Multiplicity: Singlet
    Trans. Mom.:  0.5790 X  -0.3380 Y  -0.0860 Z
    Strength   :     0.1770599739
    D(  7) --> V(  2) amplitude =  0.3983
    D(  8) --> V(  2) amplitude =  0.6724
    D(  9) --> V(  3) amplitude =  0.4728
    D( 10) --> V(  3) amplitude =  0.2778

 Excited state  12: excitation energy (eV) =   15.9414
 Total energy for state 12:                  -100.53260535 au
    Multiplicity: Singlet
    Trans. Mom.:  0.0562 X   0.1185 Y  -0.1756 Z
    Strength   :     0.0187584280
    D( 10) --> V(  4) amplitude = -0.5871
    D( 10) --> V(  5) amplitude =  0.6561

 Excited state  13: excitation energy (eV) =   16.3756
 Total energy for state 13:                  -100.51664903 au
    Multiplicity: Singlet
    Trans. Mom.: -0.0739 X  -0.0951 Y  -0.2334 Z
    Strength   :     0.0276779354
    D(  5) --> V(  1) amplitude =  0.3325
    D(  7) --> V(  2) amplitude = -0.2646
    D(  9) --> V(  3) amplitude =  0.6021
    D( 10) --> V(  4) amplitude = -0.4647
    D( 10) --> V(  5) amplitude = -0.3530

 Excited state  14: excitation energy (eV) =   16.8009
 Total energy for state 14:                  -100.50101798 au
    Multiplicity: Singlet
    Trans. Mom.: -0.1949 X  -0.6000 Y  -0.0256 Z
    Strength   :     0.1640663538
    D(  8) --> V(  2) amplitude = -0.2319
    D(  9) --> V(  3) amplitude =  0.4649
    D(  9) --> V(  4) amplitude =  0.2547
    D( 10) --> V(  4) amplitude =  0.5498
    D( 10) --> V(  5) amplitude =  0.4743

 Excited state  15: excitation energy (eV) =   17.8578
 Total energy for state 15:                  -100.46217719 au
    Multiplicity: Singlet
    Trans. Mom.:  0.4229 X  -0.2774 Y  -0.0392 Z
    Strength   :     0.1125900285
    D(  7) --> V(  3) amplitude =  0.3224
    D(  8) --> V(  3) amplitude =  0.8919

 Excited state  16: excitation energy (eV) =   18.1818
 Total energy for state 16:                  -100.45027122 au
    Multiplicity: Singlet
    Trans. Mom.: -0.3762 X   0.0918 Y   0.6263 Z
    Strength   :     0.2415207916
    D(  6) --> V(  2) amplitude =  0.7937
    D(  7) --> V(  3) amplitude = -0.2762
    D(  9) --> V(  4) amplitude = -0.3633

 Excited state  17: excitation energy (eV) =   18.4691
 Total energy for state 17:                  -100.43971373 au
    Multiplicity: Singlet
    Trans. Mom.:  1.0176 X   0.5113 Y   0.0740 Z
    Strength   :     0.5893182408
    D(  6) --> V(  2) amplitude =  0.4931
    D(  7) --> V(  3) amplitude =  0.4580
    D(  9) --> V(  4) amplitude =  0.5170
    D(  9) --> V(  5) amplitude =  0.2188

 Excited state  18: excitation energy (eV) =   19.3313
 Total energy for state 18:                  -100.40802705 au
    Multiplicity: Singlet
    Trans. Mom.: -1.0284 X  -0.4408 Y   0.1200 Z
    Strength   :     0.5997097762
    D(  7) --> V(  3) amplitude =  0.6711
    D(  8) --> V(  3) amplitude = -0.2803
    D(  9) --> V(  4) amplitude = -0.4971
    D(  9) --> V(  5) amplitude = -0.2341

 Excited state  19: excitation energy (eV) =   19.6560
 Total energy for state 19:                  -100.39609752 au
    Multiplicity: Singlet
    Trans. Mom.:  0.0118 X   0.0735 Y  -0.2512 Z
    Strength   :     0.0330601280
    D(  7) --> V(  3) amplitude =  0.2710
    D( 10) --> V(  5) amplitude = -0.2373
    D( 10) --> V(  6) amplitude =  0.4765
    D( 10) --> V(  7) amplitude =  0.7437

 Excited state  20: excitation energy (eV) =   20.2140
 Total energy for state 20:                  -100.37558941 au
    Multiplicity: Singlet
    Trans. Mom.: -0.0898 X   0.9188 Y  -0.4150 Z
    Strength   :     0.5073947684
    D(  9) --> V(  5) amplitude = -0.2234
    D( 10) --> V(  6) amplitude =  0.7578
    D( 10) --> V(  7) amplitude = -0.4681

 Excited state  21: excitation energy (eV) =   20.6360
 Total energy for state 21:                  -100.36008111 au
    Multiplicity: Singlet
    Trans. Mom.:  0.2684 X  -1.2040 Y   0.0725 Z
    Strength   :     0.7720096040
    D(  8) --> V(  5) amplitude = -0.2163
    D(  9) --> V(  4) amplitude = -0.2865
    D(  9) --> V(  5) amplitude =  0.7389
    D( 10) --> V(  7) amplitude = -0.2892

 Excited state  22: excitation energy (eV) =   21.2492
 Total energy for state 22:                  -100.33754642 au
    Multiplicity: Singlet
    Trans. Mom.:  0.8617 X   0.6919 Y   0.2693 Z
    Strength   :     0.6735383340
    D(  6) --> V(  3) amplitude =  0.2741
    D(  7) --> V(  4) amplitude = -0.4828
    D(  8) --> V(  4) amplitude =  0.3927
    D(  8) --> V(  5) amplitude = -0.3135
    D(  9) --> V(  6) amplitude =  0.5516

 Excited state  23: excitation energy (eV) =   21.4023
 Total energy for state 23:                  -100.33192039 au
    Multiplicity: Singlet
    Trans. Mom.:  0.1676 X  -0.4261 Y  -0.3224 Z
    Strength   :     0.1644305344
    D(  4) --> V(  1) amplitude =  0.5246
    D(  5) --> V(  2) amplitude =  0.7410
    D(  9) --> V(  6) amplitude =  0.2376

 Excited state  24: excitation energy (eV) =   21.6556
 Total energy for state 24:                  -100.32261169 au
    Multiplicity: Singlet
    Trans. Mom.:  0.4066 X  -0.6740 Y  -0.3931 Z
    Strength   :     0.4107748633
    D(  6) --> V(  3) amplitude =  0.2289
    D(  7) --> V(  5) amplitude =  0.4453
    D(  8) --> V(  4) amplitude =  0.2413
    D(  8) --> V(  5) amplitude =  0.6796

 Excited state  25: excitation energy (eV) =   21.9151
 Total energy for state 25:                  -100.31307487 au
    Multiplicity: Singlet
    Trans. Mom.: -0.1604 X   0.5796 Y   0.0503 Z
    Strength   :     0.1955094189
    D(  4) --> V(  1) amplitude = -0.4196
    D(  5) --> V(  2) amplitude =  0.5358
    D(  7) --> V(  4) amplitude = -0.2237
    D(  9) --> V(  6) amplitude = -0.2569
    D( 10) --> V(  8) amplitude = -0.5185

 Excited state  26: excitation energy (eV) =   21.9821
 Total energy for state 26:                  -100.31061188 au
    Multiplicity: Singlet
    Trans. Mom.: -0.4285 X   0.3520 Y  -0.0962 Z
    Strength   :     0.1706226973
    D(  4) --> V(  1) amplitude =  0.4848
    D(  6) --> V(  3) amplitude =  0.7132
    D(  9) --> V(  6) amplitude = -0.2192

 Excited state  27: excitation energy (eV) =   22.1412
 Total energy for state 27:                  -100.30476459 au
    Multiplicity: Singlet
    Trans. Mom.:  0.1063 X  -0.3185 Y   0.0977 Z
    Strength   :     0.0663429815
    D(  4) --> V(  1) amplitude =  0.4403
    D(  5) --> V(  2) amplitude = -0.3020
    D(  6) --> V(  3) amplitude = -0.3158
    D(  7) --> V(  4) amplitude = -0.4300
    D(  9) --> V(  4) amplitude = -0.2242
    D( 10) --> V(  8) amplitude = -0.4282

 Excited state  28: excitation energy (eV) =   22.2918
 Total energy for state 28:                  -100.29923126 au
    Multiplicity: Singlet
    Trans. Mom.:  0.2820 X  -0.1837 Y   0.0640 Z
    Strength   :     0.0640911582
    D(  7) --> V(  4) amplitude =  0.4139
    D(  9) --> V(  6) amplitude =  0.5279
    D(  9) --> V(  8) amplitude = -0.2377
    D( 10) --> V(  8) amplitude = -0.5184

 Excited state  29: excitation energy (eV) =   22.9913
 Total energy for state 29:                  -100.27352698 au
    Multiplicity: Singlet
    Trans. Mom.: -0.1161 X  -0.6112 Y   0.0157 Z
    Strength   :     0.2181375052
    D(  7) --> V(  4) amplitude =  0.4519
    D(  8) --> V(  4) amplitude =  0.7439

 Excited state  30: excitation energy (eV) =   23.1265
 Total energy for state 30:                  -100.26855850 au
    Multiplicity: Singlet
    Trans. Mom.:  0.1732 X  -0.1541 Y  -0.0030 Z
    Strength   :     0.0304569166
    D(  8) --> V(  7) amplitude = -0.3985
    D(  9) --> V(  7) amplitude =  0.7730

 Excited state  31: excitation energy (eV) =   24.0096
 Total energy for state 31:                  -100.23610489 au
    Multiplicity: Singlet
    Trans. Mom.: -0.6394 X   0.5046 Y  -0.1899 Z
    Strength   :     0.4114597431
    D(  5) --> V(  3) amplitude = -0.3043
    D(  6) --> V(  5) amplitude =  0.5253
    D(  7) --> V(  5) amplitude = -0.4968
    D(  8) --> V(  4) amplitude =  0.2358
    D(  8) --> V(  5) amplitude =  0.2206
    D(  9) --> V(  8) amplitude = -0.2472

 Excited state  32: excitation energy (eV) =   24.4490
 Total energy for state 32:                  -100.21995715 au
    Multiplicity: Singlet
    Trans. Mom.: -0.3359 X  -0.0718 Y  -0.7240 Z
    Strength   :     0.3846702448
    D(  7) --> V(  6) amplitude =  0.3826
    D(  7) --> V(  8) amplitude =  0.3119
    D(  8) --> V(  6) amplitude =  0.5616
    D(  8) --> V(  8) amplitude =  0.4083
    D(  9) --> V(  7) amplitude = -0.2324
    D(  9) --> V(  8) amplitude =  0.2614

 Excited state  33: excitation energy (eV) =   24.6538
 Total energy for state 33:                  -100.21242924 au
    Multiplicity: Singlet
    Trans. Mom.:  0.0137 X   0.6700 Y   0.9674 Z
    Strength   :     0.8364959075
    D(  6) --> V(  4) amplitude =  0.2275
    D(  7) --> V(  7) amplitude =  0.2668
    D(  8) --> V(  7) amplitude =  0.4875
    D(  9) --> V(  6) amplitude =  0.2222
    D(  9) --> V(  8) amplitude =  0.6088

 Excited state  34: excitation energy (eV) =   25.0624
 Total energy for state 34:                  -100.19741438 au
    Multiplicity: Singlet
    Trans. Mom.:  0.5277 X   0.3984 Y  -0.3521 Z
    Strength   :     0.3445552148
    D(  5) --> V(  3) amplitude =  0.5098
    D(  6) --> V(  4) amplitude =  0.7084
    D(  9) --> V(  8) amplitude = -0.2426

 Excited state  35: excitation energy (eV) =   25.5272
 Total energy for state 35:                  -100.18033230 au
    Multiplicity: Singlet
    Trans. Mom.: -0.3330 X  -0.0243 Y  -0.1100 Z
    Strength   :     0.0772897800
    D(  5) --> V(  3) amplitude =  0.5928
    D(  6) --> V(  4) amplitude = -0.4386
    D(  7) --> V(  5) amplitude = -0.4375
    D(  8) --> V(  5) amplitude =  0.2438

 Excited state  36: excitation energy (eV) =   26.1567
 Total energy for state 36:                  -100.15720075 au
    Multiplicity: Singlet
    Trans. Mom.: -0.3043 X  -0.0685 Y  -0.1545 Z
    Strength   :     0.0776296825
    D(  5) --> V(  3) amplitude =  0.4050
    D(  6) --> V(  4) amplitude = -0.2191
    D(  6) --> V(  5) amplitude =  0.6068
    D(  7) --> V(  5) amplitude =  0.3406
    D(  8) --> V(  5) amplitude = -0.3212

 Excited state  37: excitation energy (eV) =   26.7039
 Total energy for state 37:                  -100.13709014 au
    Multiplicity: Singlet
    Trans. Mom.:  0.2238 X   0.1312 Y   0.1288 Z
    Strength   :     0.0548912764
    D(  7) --> V(  6) amplitude = -0.2624
    D(  8) --> V(  6) amplitude =  0.6514
    D(  8) --> V(  7) amplitude =  0.3632
    D(  8) --> V(  8) amplitude = -0.2339
    D(  9) --> V(  7) amplitude =  0.2744
    D(  9) --> V(  8) amplitude = -0.2440

 Excited state  38: excitation energy (eV) =   26.9653
 Total energy for state 38:                  -100.12748417 au
    Multiplicity: Singlet
    Trans. Mom.:  0.1407 X  -0.1145 Y   0.3638 Z
    Strength   :     0.1091656768
    D(  5) --> V(  5) amplitude = -0.2313
    D(  7) --> V(  6) amplitude =  0.7138
    D(  8) --> V(  7) amplitude =  0.2160
    D(  9) --> V(  6) amplitude = -0.2389
    D(  9) --> V(  8) amplitude = -0.2405

 Excited state  39: excitation energy (eV) =   27.8129
 Total energy for state 39:                  -100.09633576 au
    Multiplicity: Singlet
    Trans. Mom.: -0.2189 X  -0.1994 Y  -0.2878 Z
    Strength   :     0.1161886019
    D(  4) --> V(  2) amplitude =  0.3740
    D(  5) --> V(  5) amplitude = -0.2599
    D(  6) --> V(  7) amplitude =  0.2206
    D(  7) --> V(  8) amplitude =  0.2706
    D(  8) --> V(  6) amplitude = -0.2582
    D(  8) --> V(  7) amplitude =  0.2769
    D(  8) --> V(  8) amplitude =  0.4750
    D( 10) --> V(  9) amplitude =  0.3136

 Excited state  40: excitation energy (eV) =   27.9079
 Total energy for state 40:                  -100.09284513 au
    Multiplicity: Singlet
    Trans. Mom.:  0.1035 X   0.0896 Y   0.0743 Z
    Strength   :     0.0165754956
    D(  4) --> V(  2) amplitude =  0.8766

 Excited state  41: excitation energy (eV) =   28.2149
 Total energy for state 41:                  -100.08156367 au
    Multiplicity: Singlet

                    Orbital Energies (a.u.)
 --------------------------------------------------------------

 Alpha MOs
 -- Occupied --
-11.430 -11.358  -7.766  -1.341  -1.047  -0.949  -0.838  -0.817
 -0.733  -0.643

          Ground-State Mulliken Net Atomic Charges

     Atom                 Charge (a.u.)
  ----------------------------------------
      1 C                     0.059031
      2 H                     0.211880
      3 B                     0.421885
      4 H                     0.077828
      5 C                    -0.171323
      6 H                     0.187149
      7 H                     0.213551
  ----------------------------------------
  Sum of atomic charges =     1.000000

                    Cartesian Multipole Moments
 -----------------------------------------------------------------
    Charge (ESU x 10^10)
                 4.8032
    Dipole Moment (Debye)
         X       0.0164      Y       0.4908      Z      -0.0806
       Tot       0.4976
    Quadrupole Moments (Debye-Ang)
        XX     -12.9343     XY      -0.1238     YY     -12.1426
        XZ      -0.2478     YZ       0.9433     ZZ     -14.3230

 Total job time:  0.92s(wall), 0.92s(cpu)
        *  Thank you very much for using Q-Chem.  Have a nice day.  *
