============================== echo of input deck ==============================
echo

geometry units angstrom noautoz nocenter
symmetry c1
C     -0.0008286620   -0.0004493055   -0.0003241160
H      0.0005419438   -0.0005510523    1.0881223132
B      0.7614042004    0.0000912434   -1.2402303969
H      1.5507850082   -0.3250641117   -2.0682935236
C     -0.5677515230    0.9696516240   -0.9682785376
H     -0.6787643958    2.0262293122   -0.6791165638
H     -1.3308161697    0.6715931113   -1.7152165963
end

charge 0

basis
  * library sto-3g
end

dft
  mult 2
  xc hfexch
  direct
end

property
  center arb 0.0 0.0 0.0
  response 1 0.001
  convergence 1e-8
end

task dft property
================================================================================

 Output coordinates in angstroms (scale by  1.889725989 to convert to a.u.)

  No.       Tag          Charge          X              Y              Z
 ---- ---------------- ---------- -------------- -------------- --------------
    1 C                    6.0000    -0.00082866    -0.00044931    -0.00032412
    2 H                    1.0000     0.00054194    -0.00055105     1.08812231
    3 B                    5.0000     0.76140420     0.00009124    -1.24023040
    4 H                    1.0000     1.55078501    -0.32506411    -2.06829352
    5 C                    6.0000    -0.56775152     0.96965162    -0.96827854
    6 H                    1.0000    -0.67876440     2.02622931    -0.67911656
    7 H                    1.0000    -1.33081617     0.67159311    -1.71521660

         Total DFT energy =     -101.361051830559

                    DFT Final Alpha Molecular Orbital Analysis
                    ------------------------------------------

 Vector    1  Occ=1.000000D+00  E=-1.100849D+01

 Vector    2  Occ=1.000000D+00  E=-1.099382D+01

 Vector    3  Occ=1.000000D+00  E=-7.402168D+00

 Vector    4  Occ=1.000000D+00  E=-1.014496D+00

 Vector    5  Occ=1.000000D+00  E=-7.529579D-01

 Vector    6  Occ=1.000000D+00  E=-6.329006D-01

 Vector    7  Occ=1.000000D+00  E=-5.507662D-01

 Vector    8  Occ=1.000000D+00  E=-5.400946D-01

 Vector    9  Occ=1.000000D+00  E=-4.095567D-01

 Vector   10  Occ=1.000000D+00  E=-3.627584D-01

 Vector   11  Occ=1.000000D+00  E=-2.692645D-01

 Vector   12  Occ=0.000000D+00  E= 2.898400D-01

 Vector   13  Occ=0.000000D+00  E= 4.911604D-01

 Vector   14  Occ=0.000000D+00  E= 5.587411D-01

 Vector   15  Occ=0.000000D+00  E= 6.456398D-01

 Vector   16  Occ=0.000000D+00  E= 6.897759D-01

 Vector   17  Occ=0.000000D+00  E= 7.612279D-01

 Vector   18  Occ=0.000000D+00  E= 8.286508D-01

 Vector   19  Occ=0.000000D+00  E= 1.092564D+00

 Vector    1  Occ=1.000000D+00  E=-1.099580D+01

 Vector    2  Occ=1.000000D+00  E=-1.098544D+01

 Vector    3  Occ=1.000000D+00  E=-7.400645D+00

 Vector    4  Occ=1.000000D+00  E=-9.656372D-01

 Vector    5  Occ=1.000000D+00  E=-7.075080D-01

 Vector    6  Occ=1.000000D+00  E=-6.148797D-01

 Vector    7  Occ=1.000000D+00  E=-5.442397D-01

 Vector    8  Occ=1.000000D+00  E=-5.011586D-01

 Vector    9  Occ=1.000000D+00  E=-3.831358D-01

 Vector   10  Occ=1.000000D+00  E=-3.116472D-01

 Vector   11  Occ=0.000000D+00  E= 1.789582D-01

 Vector   12  Occ=0.000000D+00  E= 4.014313D-01

 Vector   13  Occ=0.000000D+00  E= 5.096245D-01

 Vector   14  Occ=0.000000D+00  E= 5.865626D-01

 Vector   15  Occ=0.000000D+00  E= 6.731724D-01

 Vector   16  Occ=0.000000D+00  E= 7.050047D-01

 Vector   17  Occ=0.000000D+00  E= 7.846832D-01

 Vector   18  Occ=0.000000D+00  E= 8.389306D-01

 Vector   19  Occ=0.000000D+00  E= 1.113828D+00

     Multipole analysis of the density
     ---------------------------------

     L   x y z        total         alpha         beta         nuclear
     -   - - -        -----         -----         ----         -------
     0   0 0 0     -0.000000    -11.000000    -10.000000     21.000000

     1   1 0 0      0.057658      0.154639      0.021532     -0.118512
     1   0 1 0     -0.010418     -7.755430     -7.727833     15.472845
     1   0 0 1      0.085139     14.853923     14.308944    -29.077728

     2   2 0 0    -13.288257    -24.365400    -22.738922     33.816064
     2   1 1 0      0.509277     11.066937     11.140061    -21.697721
     2   1 0 1      0.349459      3.283653      3.802342     -6.736537
     2   0 2 0    -13.283670    -25.755299    -24.323390     36.795020
     2   0 1 1      0.598769     13.831593     13.515045    -26.747869

 Total times  cpu:        3.8s     wall:       11.2s
