 Q-Chem 5.0, Q-Chem, Inc., Pleasanton, CA (2017)
 Q-Chem 5.0.1 for Intel X86 EM64T Linux

User input:
--------------------------------------------------------------
$rem
 method = hf
 basis = sto-3g
 scf_convergence = 10
 thresh = 14
 moprop = 103
 symmetry = false
 sym_ignore = true
 moprop_conv_1st = 9
 moprop_conv_2nd = 9
$end

$fdpfreq
eopockels
0.0773178
au
$end

$molecule
0 1
O          0.000000000000     0.000000000000    -0.075791843589
H          0.000000000000    -0.866811828967     0.601435779270
H          0.000000000000     0.866811828967     0.601435779270
$end
--------------------------------------------------------------

             Standard Nuclear Orientation (Angstroms)
    I     Atom           X                Y                Z
 ----------------------------------------------------------------
    1      O       0.0000000000     0.0000000000    -0.0757918436
    2      H       0.0000000000    -0.8668118290     0.6014357793
    3      H       0.0000000000     0.8668118290     0.6014357793
 ----------------------------------------------------------------

    9     -74.9420798987      2.20E-13 Convergence criterion met
 Total energy in the final basis set = -74.94207990

                    Orbital Energies (a.u.)
 --------------------------------------------------------------

 Alpha MOs
 -- Occupied --
-20.263  -1.210  -0.548  -0.437  -0.388

          Ground-State Mulliken Net Atomic Charges

     Atom                 Charge (a.u.)
  ----------------------------------------
      1 O                    -0.253146
      2 H                     0.126573
      3 H                     0.126573
  ----------------------------------------
  Sum of atomic charges =     0.000000

                    Cartesian Multipole Moments
 -----------------------------------------------------------------
    Charge (ESU x 10^10)
                 0.0000
    Dipole Moment (Debye)
         X       0.0000      Y       0.0000      Z       1.5340
       Tot       1.5340
    Quadrupole Moments (Debye-Ang)
        XX      -6.2076     XY       0.0000     YY      -4.3168
        XZ      -0.0000     YZ       0.0000     ZZ      -5.2054

 Total job time:  0.15s(wall), 0.15s(cpu)
        *  Thank you very much for using Q-Chem.  Have a nice day.  *
