 Output coordinates in angstroms (scale by  1.889725989 to convert to a.u.)

  No.       Tag          Charge          X              Y              Z
 ---- ---------------- ---------- -------------- -------------- --------------
    1 C                    6.0000     0.81639372     0.13106103    -0.07151958
    2 H                    1.0000     1.84575758    -0.02484107     0.24600537
    3 B                    5.0000    -0.40944336     0.90817897     0.03700672
    4 H                    1.0000    -1.14431576     1.84330325     0.04346789
    5 C                    6.0000    -0.36746613    -0.75858397     0.00873477
    6 H                    1.0000    -0.42150893    -1.52366545     0.79868706
    7 H                    1.0000    -0.92628163    -1.07055396    -0.89648506

         Total DFT energy =     -101.118440429379

                       DFT Final Molecular Orbital Analysis
                       ------------------------------------

 Vector    1  Occ=2.000000D+00  E=-1.143044D+01

 Vector    2  Occ=2.000000D+00  E=-1.135806D+01

 Vector    3  Occ=2.000000D+00  E=-7.765504D+00

 Vector    4  Occ=2.000000D+00  E=-1.341215D+00

 Vector    5  Occ=2.000000D+00  E=-1.046702D+00

 Vector    6  Occ=2.000000D+00  E=-9.490153D-01

 Vector    7  Occ=2.000000D+00  E=-8.383174D-01

 Vector    8  Occ=2.000000D+00  E=-8.171014D-01

 Vector    9  Occ=2.000000D+00  E=-7.330578D-01

 Vector   10  Occ=2.000000D+00  E=-6.430810D-01

 Vector   11  Occ=0.000000D+00  E=-2.015533D-01

 Vector   12  Occ=0.000000D+00  E= 2.130483D-02

 Vector   13  Occ=0.000000D+00  E= 1.794732D-01

 Vector   14  Occ=0.000000D+00  E= 2.623603D-01

 Vector   15  Occ=0.000000D+00  E= 3.290303D-01

 Vector   16  Occ=0.000000D+00  E= 3.912468D-01

 Vector   17  Occ=0.000000D+00  E= 4.449495D-01

 Vector   18  Occ=0.000000D+00  E= 5.001433D-01

 Vector   19  Occ=0.000000D+00  E= 7.526215D-01

     Multipole analysis of the density
     ---------------------------------

     L   x y z        total         alpha         beta         nuclear
     -   - - -        -----         -----         ----         -------
     0   0 0 0      1.000000    -10.000000    -10.000000     21.000000

     1   1 0 0      0.194433      0.097217      0.097217     -0.000000
     1   0 1 0     -0.002339     -0.001169     -0.001169      0.000000
     1   0 0 1     -0.022837     -0.011419     -0.011419      0.000000

     2   2 0 0     -9.099178    -24.903489    -24.903489     40.707800
     2   1 1 0      0.102216      0.169007      0.169007     -0.235797
     2   1 0 1      0.767100     -0.424798     -0.424798      1.616697
     2   0 2 0     -9.608587    -30.776164    -30.776164     51.943741
     2   0 1 1      0.196367      0.296620      0.296620     -0.396874

  Root   1 singlet a              0.125204912 a.u.                3.4070 eV
     Dipole Oscillator Strength                         0.01745
  Root   2 singlet a              0.160125773 a.u.                4.3572 eV
     Dipole Oscillator Strength                         0.00751
  Root   3 singlet a              0.304187646 a.u.                8.2774 eV
     Dipole Oscillator Strength                         0.00493
  Root   4 singlet a              0.329994413 a.u.                8.9796 eV
     Dipole Oscillator Strength                         0.11134
  Root   5 singlet a              0.346350537 a.u.                9.4247 eV
     Dipole Oscillator Strength                         0.11764
  Root   6 singlet a              0.394232630 a.u.               10.7276 eV
     Dipole Oscillator Strength                         0.04837
  Root   7 singlet a              0.428745436 a.u.               11.6668 eV
     Dipole Oscillator Strength                         0.04409
  Root   8 singlet a              0.525628840 a.u.               14.3031 eV
     Dipole Oscillator Strength                         0.18020
  Root   9 singlet a              0.540452349 a.u.               14.7065 eV
     Dipole Oscillator Strength                         0.34979
  Root  10 singlet a              0.573624399 a.u.               15.6091 eV
     Dipole Oscillator Strength                         0.49315
 Total times  cpu:        1.5s     wall:        4.1s
