 Q-Chem 5.0, Q-Chem, Inc., Pleasanton, CA (2017)
 Q-Chem 5.0.1 for Intel X86 EM64T Linux

User input:
--------------------------------------------------------------
$rem
 method = hf
 basis = sto-3g
 scf_convergence = 10
 thresh = 14
 moprop = 103
 symmetry = false
 sym_ignore = true
 moprop_conv_1st = 9
 moprop_conv_2nd = 9
$end

$fdpfreq
shg
0.0773178
au
$end

$molecule
0 1
O         -1.81298        0.53384       -0.01233
H         -0.82365        0.49649        0.00870
H         -2.10234       -0.29131        0.45244
$end
--------------------------------------------------------------

             Standard Nuclear Orientation (Angstroms)
    I     Atom           X                Y                Z
 ----------------------------------------------------------------
    1      O      -1.8129800000     0.5338400000    -0.0123300000
    2      H      -0.8236500000     0.4964900000     0.0087000000
    3      H      -2.1023400000    -0.2913100000     0.4524400000
 ----------------------------------------------------------------

    8     -74.9650031064      4.10E-11 Convergence criterion met
 Total energy in the final basis set = -74.96500311

                    Orbital Energies (a.u.)
 --------------------------------------------------------------

 Alpha MOs
 -- Occupied --
-20.246  -1.252  -0.601  -0.449  -0.389

          Ground-State Mulliken Net Atomic Charges

     Atom                 Charge (a.u.)
  ----------------------------------------
      1 O                    -0.336476
      2 H                     0.168238
      3 H                     0.168238
  ----------------------------------------
  Sum of atomic charges =    -0.000000

                    Cartesian Multipole Moments
 -----------------------------------------------------------------
    Charge (ESU x 10^10)
                 0.0000
    Dipole Moment (Debye)
         X       0.9711      Y      -1.1966      Z       0.6740
       Tot       1.6820
    Quadrupole Moments (Debye-Ang)
        XX      -8.0797     XY       2.9531     YY      -6.3763
        XZ      -1.3833     YZ      -0.2023     ZZ      -5.8146

 Total job time:  0.10s(wall), 0.09s(cpu)
        *  Thank you very much for using Q-Chem.  Have a nice day.  *
