 Output coordinates in angstroms (scale by  1.889725989 to convert to a.u.)

  No.       Tag          Charge          X              Y              Z
 ---- ---------------- ---------- -------------- -------------- --------------
    1 C                    6.0000     0.81639372     0.13106103    -0.07151958
    2 H                    1.0000     1.84575758    -0.02484107     0.24600537
    3 B                    5.0000    -0.40944336     0.90817897     0.03700672
    4 H                    1.0000    -1.14431576     1.84330325     0.04346789
    5 C                    6.0000    -0.36746613    -0.75858397     0.00873477
    6 H                    1.0000    -0.42150893    -1.52366545     0.79868706
    7 H                    1.0000    -0.92628163    -1.07055396    -0.89648506

         Total DFT energy =     -101.118440429717

                       DFT Final Molecular Orbital Analysis
                       ------------------------------------

 Vector    1  Occ=2.000000D+00  E=-1.143044D+01

 Vector    2  Occ=2.000000D+00  E=-1.135806D+01

 Vector    3  Occ=2.000000D+00  E=-7.765500D+00

 Vector    4  Occ=2.000000D+00  E=-1.341215D+00

 Vector    5  Occ=2.000000D+00  E=-1.046702D+00

 Vector    6  Occ=2.000000D+00  E=-9.490159D-01

 Vector    7  Occ=2.000000D+00  E=-8.383172D-01

 Vector    8  Occ=2.000000D+00  E=-8.171016D-01

 Vector    9  Occ=2.000000D+00  E=-7.330582D-01

 Vector   10  Occ=2.000000D+00  E=-6.430807D-01

 Vector   11  Occ=0.000000D+00  E=-2.015531D-01

 Vector   12  Occ=0.000000D+00  E= 2.130580D-02

 Vector   13  Occ=0.000000D+00  E= 1.794738D-01

 Vector   14  Occ=0.000000D+00  E= 2.623609D-01

 Vector   15  Occ=0.000000D+00  E= 3.290298D-01

 Vector   16  Occ=0.000000D+00  E= 3.912465D-01

 Vector   17  Occ=0.000000D+00  E= 4.449491D-01

 Vector   18  Occ=0.000000D+00  E= 5.001427D-01

 Vector   19  Occ=0.000000D+00  E= 7.526219D-01

     Multipole analysis of the density
     ---------------------------------

     L   x y z        total         alpha         beta         nuclear
     -   - - -        -----         -----         ----         -------
     0   0 0 0      1.000000    -10.000000    -10.000000     21.000000

     1   1 0 0      0.194435      0.097218      0.097218     -0.000000
     1   0 1 0     -0.002334     -0.001167     -0.001167      0.000000
     1   0 0 1     -0.022838     -0.011419     -0.011419      0.000000

     2   2 0 0     -9.099176    -24.903488    -24.903488     40.707800
     2   1 1 0      0.102216      0.169006      0.169006     -0.235797
     2   1 0 1      0.767103     -0.424797     -0.424797      1.616697
     2   0 2 0     -9.608594    -30.776168    -30.776168     51.943741
     2   0 1 1      0.196360      0.296617      0.296617     -0.396874

  Root   1 singlet a              0.116938283 a.u.                3.1821 eV
     Dipole Oscillator Strength                         0.01116
  Root   2 singlet a              0.153688860 a.u.                4.1821 eV
     Dipole Oscillator Strength                         0.00473
  Root   3 singlet a              0.302306677 a.u.                8.2262 eV
     Dipole Oscillator Strength                         0.00458
  Root   4 singlet a              0.327380785 a.u.                8.9085 eV
     Dipole Oscillator Strength                         0.09761
  Root   5 singlet a              0.340637548 a.u.                9.2692 eV
     Dipole Oscillator Strength                         0.09190
  Root   6 singlet a              0.391151295 a.u.               10.6438 eV
     Dipole Oscillator Strength                         0.03514
  Root   7 singlet a              0.427233992 a.u.               11.6256 eV
     Dipole Oscillator Strength                         0.03804
  Root   8 singlet a              0.521916988 a.u.               14.2021 eV
     Dipole Oscillator Strength                         0.28900
  Root   9 singlet a              0.534473141 a.u.               14.5438 eV
     Dipole Oscillator Strength                         0.19604
  Root  10 singlet a              0.567055549 a.u.               15.4304 eV
     Dipole Oscillator Strength                         0.43408
 Total times  cpu:        0.8s     wall:        2.2s
